                         Program Version 5.0.4 -  RELEASE  -
|  1> %pal nprocs 1 END
|  2> %MaxCore 3000
|  3>
|  4> !BP86 D3BJ DEF2-SVP TightSCF
|  5> !OPT
|  6>
|  7> * xyz 0 1
|  8> C         -5.39620        2.23750       -0.00500
|  9> C         -4.32710        3.33400       -0.00120
| 10> H         -6.39390        2.72630        0.00270
| 11> H         -5.36040        1.61530        0.90930
| 12> H         -5.36780        1.62940       -0.92910
| 13> C         -2.80350        3.09610       -0.00900
| 14> H         -4.53830        3.95120        0.90000
| 15> H         -4.54560        3.96370       -0.89190
| 16> O         -2.19120        4.15040       -0.00530
| 17> N         -2.10530        1.88270       -0.01930
| 18> C         -2.87420        0.62430       -0.02230
| 19> C         -2.31470       -0.81200       -0.03170
| 20> H         -3.49740        0.64060       -0.93480
| 21> H         -3.48630        0.63240        0.89800
| 22> N         -3.28290       -1.77070       -0.02320
| 23> C         -3.00620       -3.09690       -0.02850
| 24> C         -4.04910       -4.03070       -0.01820
| 25> C         -3.76290       -5.39900       -0.02350
| 26> C         -2.43570       -5.83770       -0.03920
| 27> C         -1.38900       -4.91010       -0.04960
| 28> C         -1.67050       -3.53060       -0.04420
| 29> C         -0.66670       -2.55290       -0.05370
| 30> N         -1.00270       -1.21800       -0.04720
| 31> O          0.51040       -2.87730       -0.06780
| 32> C         -0.63110        1.81500       -0.02480
| 33> C          0.20250        3.11900       -0.01290
| 34> H         -0.33330        1.29520       -0.96030
| 35> H         -0.32790        1.27610        0.89810
| 36> C          1.70980        2.93130       -0.01570
| 37> H         -0.04200        3.69260        0.90790
| 38> H         -0.04310        3.71160       -0.92120
| 39> C          2.34380        1.66980       -0.03040
| 40> C          3.73920        1.57750       -0.03170
| 41> C          4.52110        2.73500       -0.01850
| 42> Cl         6.27100        2.61390       -0.02000
| 43> C          3.90640        3.98910       -0.00390
| 44> C          2.51210        4.08640       -0.00270
| 45> H         -0.19480       -0.58070       -0.05570
| 46> H         -5.08000       -3.69890       -0.00600
| 47> H         -4.57020       -6.11990       -0.01530
| 48> H         -2.21790       -6.89790       -0.04330
| 49> H         -0.36800       -5.27140       -0.06170
| 50> H          1.78010        0.74990       -0.04090
| 51> H          4.21160        0.60330       -0.04300
| 52> H          2.05420        5.06820        0.00880
| 53> H          4.50700        4.88970        0.00640
| 54> **                         ****END OF INPUT****
 Total Charge           Charge          ....    0
 Multiplicity           Mult            ....    1
 Number of Electrons    NEL             ....  194
Dispersion correction           -0.094895631
FINAL SINGLE POINT ENERGY     -1548.290118113861
Dispersion correction            ... done
Dispersion correction           -0.096958502
FINAL SINGLE POINT ENERGY     -1548.311204076203
Dispersion correction            ... done
Dispersion correction           -0.095302221
FINAL SINGLE POINT ENERGY     -1548.314750892157
Dispersion correction            ... done
FINAL SINGLE POINT ENERGY     -1548.318119363210
FINAL SINGLE POINT ENERGY     -1548.318608693986
FINAL SINGLE POINT ENERGY     -1548.318767272493
FINAL SINGLE POINT ENERGY     -1548.318820126504
FINAL SINGLE POINT ENERGY     -1548.318991526666
FINAL SINGLE POINT ENERGY     -1548.319037335711
FINAL SINGLE POINT ENERGY     -1548.310490823059
FINAL SINGLE POINT ENERGY     -1548.366020064505
FINAL SINGLE POINT ENERGY     -1548.366238923258
FINAL SINGLE POINT ENERGY     -1548.366336428989
FINAL SINGLE POINT ENERGY     -1548.366382034984
FINAL SINGLE POINT ENERGY     -1548.366409768777
FINAL SINGLE POINT ENERGY     -1548.366420086668
FINAL SINGLE POINT ENERGY     -1548.366427283129
Dispersion correction            ... done
Dispersion correction           -0.096893813
FINAL SINGLE POINT ENERGY     -1548.366432874310
Dispersion correction            ... done
Dispersion correction           -0.096888200
FINAL SINGLE POINT ENERGY     -1548.366436441450
Dispersion correction            ... done
                    ***********************HURRAY********************

CARTESIAN COORDINATES (ANGSTROEM)
---------------------------------
  C     -4.800613    1.730880   -1.825069
  C     -4.121079    2.861800   -1.034754
  H     -5.892326    1.906388   -1.898775
  H     -4.659412    0.734800   -1.359306
  H     -4.399778    1.679537   -2.857635
  C     -2.592778    2.792440   -1.054308
  H     -4.506038    2.897406    0.007067
  H     -4.359639    3.838711   -1.496113
  O     -1.924350    3.564377   -1.740872
  N     -1.966724    1.790207   -0.312404
  C     -2.614428    0.959654    0.686852
  C     -2.524896   -0.529099    0.388904
  H     -3.683385    1.234692    0.770136
  H     -2.176083    1.111313    1.696284
  N     -2.585505   -1.382616    1.370202
  C     -2.556154   -2.732787    1.040389
  C     -2.629782   -3.693158    2.080266
  C     -2.598007   -5.056955    1.784227
  C     -2.490652   -5.503651    0.446581
  C     -2.415395   -4.574555   -0.592932
  C     -2.448530   -3.193099   -0.308679
  C     -2.363504   -2.213437   -1.408231
  N     -2.419389   -0.883048   -0.935048
  O     -2.255962   -2.453577   -2.605644
  C     -0.500028    1.771405   -0.325812
  C      0.122965    2.789420    0.652157
  H     -0.167846    2.007651   -1.354550
  H     -0.158617    0.743887   -0.082599
  C      1.630166    2.777677    0.566834
  H     -0.204459    2.561844    1.688590
  H     -0.268910    3.791931    0.387234
  C      2.291259    3.509843   -0.442290
  C      3.685969    3.467128   -0.576827
  C      4.436521    2.675596    0.309246
  Cl     6.179919    2.617648    0.153228
  C      3.805072    1.933059    1.320372
  C      2.408122    1.988598    1.437973
  H     -2.335727   -0.136619   -1.635705
  H     -2.711756   -3.325716    3.113405
  H     -2.656477   -5.792362    2.601468
  H     -2.466041   -6.581644    0.227574
  H     -2.329927   -4.883310   -1.645455
  H      1.699475    4.128856   -1.135581
  H      4.197249    4.043647   -1.360557
  H      1.913193    1.406738    2.232230
  H      4.407588    1.321299    2.006428

 Multiplicity           Mult            ....    1
 Number of Electrons    NEL             ....  194
 Basis Dimension        Dim             ....  468

ORBITAL ENERGIES
----------------

  NO   OCC          E(Eh)            E(eV)
   0   2.0000    -100.700344     -2740.1957
   1   2.0000     -18.761424      -510.5243
   2   2.0000     -18.758842      -510.4541
   3   2.0000     -14.082677      -383.2091
   4   2.0000     -14.067794      -382.8041
   5   2.0000     -14.019693      -381.4952
   6   2.0000     -10.026180      -272.8262
   7   2.0000     -10.019688      -272.6496
   8   2.0000     -10.013965      -272.4938
   9   2.0000      -9.985958      -271.7317
  10   2.0000      -9.974606      -271.4228
  11   2.0000      -9.968460      -271.2556
  12   2.0000      -9.964204      -271.1398
  13   2.0000      -9.940118      -270.4844
  14   2.0000      -9.938340      -270.4360
  15   2.0000      -9.937989      -270.4264
  16   2.0000      -9.935717      -270.3646
  17   2.0000      -9.934808      -270.3399
  18   2.0000      -9.934056      -270.3194
  19   2.0000      -9.933814      -270.3128
  20   2.0000      -9.933029      -270.2915
  21   2.0000      -9.932420      -270.2749
  22   2.0000      -9.932185      -270.2685
  23   2.0000      -9.931919      -270.2613
  24   2.0000      -9.931052      -270.2377
  25   2.0000      -9.930054      -270.2105
  26   2.0000      -9.185454      -249.9489
  27   2.0000      -7.016382      -190.9255
  28   2.0000      -7.005171      -190.6204
  29   2.0000      -7.004595      -190.6047
  30   2.0000      -0.959022       -26.0963
  31   2.0000      -0.951765       -25.8988
  32   2.0000      -0.909314       -24.7437
  33   2.0000      -0.866770       -23.5860
  34   2.0000      -0.829521       -22.5724
  35   2.0000      -0.810967       -22.0675
  36   2.0000      -0.780053       -21.2263
  37   2.0000      -0.767954       -20.8971
  38   2.0000      -0.727230       -19.7889
  39   2.0000      -0.716452       -19.4957
  40   2.0000      -0.702693       -19.1212
  41   2.0000      -0.693347       -18.8669
  42   2.0000      -0.682697       -18.5771
  43   2.0000      -0.665320       -18.1043
  44   2.0000      -0.647671       -17.6240
  45   2.0000      -0.609710       -16.5911
  46   2.0000      -0.601876       -16.3779
  47   2.0000      -0.591172       -16.0866
  48   2.0000      -0.574144       -15.6233
  49   2.0000      -0.560430       -15.2501
  50   2.0000      -0.552028       -15.0214
  51   2.0000      -0.528822       -14.3900
  52   2.0000      -0.524838       -14.2816
  53   2.0000      -0.515154       -14.0181
  54   2.0000      -0.502505       -13.6738
  55   2.0000      -0.471646       -12.8341
  56   2.0000      -0.470930       -12.8147
  57   2.0000      -0.461496       -12.5579
  58   2.0000      -0.443344       -12.0640
  59   2.0000      -0.438876       -11.9424
  60   2.0000      -0.432994       -11.7824
  61   2.0000      -0.428424       -11.6580
  62   2.0000      -0.423038       -11.5114
  63   2.0000      -0.413590       -11.2544
  64   2.0000      -0.408956       -11.1283
  65   2.0000      -0.405971       -11.0470
  66   2.0000      -0.398376       -10.8404
  67   2.0000      -0.393205       -10.6996
  68   2.0000      -0.391741       -10.6598
  69   2.0000      -0.387251       -10.5376
  70   2.0000      -0.383619       -10.4388
  71   2.0000      -0.382335       -10.4039
  72   2.0000      -0.375059       -10.2059
  73   2.0000      -0.369627       -10.0581
  74   2.0000      -0.365099        -9.9348
  75   2.0000      -0.353012        -9.6059
  76   2.0000      -0.350761        -9.5447
  77   2.0000      -0.341792        -9.3006
  78   2.0000      -0.336147        -9.1470
  79   2.0000      -0.333831        -9.0840
  80   2.0000      -0.329919        -8.9776
  81   2.0000      -0.328270        -8.9327
  82   2.0000      -0.326820        -8.8932
  83   2.0000      -0.322883        -8.7861
  84   2.0000      -0.320116        -8.7108
  85   2.0000      -0.308353        -8.3907
  86   2.0000      -0.293229        -7.9792
  87   2.0000      -0.276768        -7.5312
  88   2.0000      -0.270401        -7.3580
  89   2.0000      -0.247824        -6.7436
  90   2.0000      -0.246424        -6.7055
  91   2.0000      -0.243446        -6.6245
  92   2.0000      -0.237200        -6.4546
  93   2.0000      -0.229224        -6.2375
  94   2.0000      -0.219778        -5.9805
  95   2.0000      -0.218823        -5.9545
  96   2.0000      -0.215786        -5.8718
  97   0.0000      -0.084406        -2.2968
  98   0.0000      -0.082147        -2.2353
  99   0.0000      -0.055454        -1.5090
 100   0.0000      -0.053942        -1.4678
 101   0.0000      -0.036496        -0.9931

MULLIKEN ATOMIC CHARGES
-----------------------
   0 C :   -0.084266
   1 C :   -0.024416
   2 H :    0.051158
   3 H :    0.032685
   4 H :    0.054473
   5 C :    0.055209
   6 H :    0.044752
   7 H :    0.045724
   8 O :   -0.223395
   9 N :   -0.279949
  10 C :    0.225906
  11 C :   -0.133810
  12 H :    0.065105
  13 H :    0.044122
  14 N :   -0.076271
  15 C :    0.045301
  16 C :   -0.010159
  17 C :    0.008570
  18 C :    0.017935
  19 C :   -0.031940
  20 C :   -0.051576
  21 C :    0.099282
  22 N :   -0.059474
  23 O :   -0.173597
  24 C :    0.088038
  25 C :    0.053037
  26 H :    0.045748
  27 H :    0.032509
  28 C :   -0.027088
  29 H :    0.014920
  30 H :    0.039326
  31 C :   -0.038864
  32 C :    0.030692
  33 C :    0.020607
  34 Cl:   -0.089078
  35 C :    0.029121
  36 C :   -0.036564
  37 H :    0.142981
  38 H :   -0.006926
  39 H :    0.013073
  40 H :    0.011918
  41 H :    0.016887
  42 H :    0.015131
  43 H :    0.003988
  44 H :   -0.002948
  45 H :    0.002120
Sum of atomic charges:   -0.0000000

LOEWDIN ATOMIC CHARGES
----------------------
   0 C :   -0.069764
   1 C :   -0.073880
   2 H :    0.039235
   3 H :    0.022424
   4 H :    0.038368
   5 C :    0.052665
   6 H :    0.034553
   7 H :    0.048235
   8 O :   -0.193239
   9 N :   -0.046487
  10 C :    0.023782
  11 C :    0.024997
  12 H :    0.051090
  13 H :    0.043476
  14 N :   -0.115415
  15 C :    0.006385
  16 C :   -0.024621
  17 C :   -0.013865
  18 C :   -0.029303
  19 C :    0.005611
  20 C :   -0.082792
  21 C :    0.053550
  22 N :    0.045183
  23 O :   -0.180949
  24 C :    0.030028
  25 C :   -0.040067
  26 H :    0.035839
  27 H :    0.027179
  28 C :   -0.030261
  29 H :    0.028883
  30 H :    0.041141
  31 C :   -0.021453
  32 C :   -0.044021
  33 C :   -0.122375
  34 Cl:    0.113506
  35 C :   -0.045884
  36 C :   -0.027983
  37 H :    0.090818
  38 H :    0.038442
  39 H :    0.037372
  40 H :    0.036708
  41 H :    0.042866
  42 H :    0.040003
  43 H :    0.038819
  44 H :    0.033170
  45 H :    0.038033

  Mayer bond orders larger than 0.100000
B(  0-C ,  1-C ) :   1.0976 B(  0-C ,  2-H ) :   0.9595 B(  0-C ,  3-H ) :   0.9622
B(  0-C ,  4-H ) :   0.9623 B(  1-C ,  5-C ) :   1.0012 B(  1-C ,  6-H ) :   0.9176
B(  1-C ,  7-H ) :   0.9118 B(  5-C ,  8-O ) :   2.0240 B(  5-C ,  9-N ) :   1.1029
B(  9-N , 10-C ) :   0.9966 B(  9-N , 24-C ) :   0.9584 B( 10-C , 11-C ) :   0.9809
B( 10-C , 12-H ) :   0.8964 B( 10-C , 13-H ) :   0.8980 B( 11-C , 14-N ) :   1.7349
B( 11-C , 22-N ) :   1.2141 B( 14-N , 15-C ) :   1.2557 B( 15-C , 16-C ) :   1.3202
B( 15-C , 20-C ) :   1.2705 B( 16-C , 17-C ) :   1.3884 B( 16-C , 38-H ) :   0.9761
B( 17-C , 18-C ) :   1.3135 B( 17-C , 39-H ) :   0.9735 B( 18-C , 19-C ) :   1.3852
B( 18-C , 40-H ) :   0.9782 B( 19-C , 20-C ) :   1.3474 B( 19-C , 41-H ) :   0.9783
B( 20-C , 21-C ) :   0.9685 B( 21-C , 22-N ) :   1.0565 B( 21-C , 23-O ) :   2.1589
B( 22-N , 37-H ) :   0.8647 B( 24-C , 25-C ) :   1.0968 B( 24-C , 26-H ) :   0.9176
B( 24-C , 27-H ) :   0.9292 B( 25-C , 28-C ) :   1.0613 B( 25-C , 29-H ) :   0.9116
B( 25-C , 30-H ) :   0.9043 B( 28-C , 31-C ) :   1.3744 B( 28-C , 36-C ) :   1.3779
B( 31-C , 32-C ) :   1.3680 B( 31-C , 42-H ) :   0.9721 B( 32-C , 33-C ) :   1.3787
B( 32-C , 43-H ) :   0.9761 B( 33-C , 34-Cl) :   0.9823 B( 33-C , 35-C ) :   1.3854
B( 35-C , 36-C ) :   1.3648 B( 35-C , 45-H ) :   0.9751 B( 36-C , 44-H ) :   0.9716

Dispersion correction           -0.096883872
FINAL SINGLE POINT ENERGY     -1548.366439132998

DIPOLE MOMENT
-------------
                                X             Y             Z
Electronic contribution:     27.98405      -2.07416       0.37353
Nuclear contribution   :    -29.13236       1.89434       0.80787
                        -----------------------------------------
Total Dipole Moment    :     -1.14831      -0.17983       1.18140
                        -----------------------------------------
Magnitude (a.u.)       :      1.65730
Magnitude (Debye)      :      4.21252

Rotational constants in cm-1:     0.007612     0.002995     0.002392
Rotational constants in MHz :   228.213232    89.780294    71.695404

                             ****ORCA TERMINATED NORMALLY****
TOTAL RUN TIME: 0 days 0 hours 59 minutes 13 seconds 219 msec
