                         Program Version 5.0.4 -  RELEASE  -
|  1> %pal nprocs 1 END
|  2> %MaxCore 3000
|  3>
|  4> !BP86 D3BJ DEF2-SVP TightSCF
|  5> !OPT
|  6>
|  7> * xyz 0 1
|  8> C         -1.89136        1.78589        0.24081
|  9> C         -0.45341        1.70721        0.77384
| 10> H         -1.96813        2.57000       -0.54198
| 11> H         -2.59476        2.03864        1.06279
| 12> H         -2.20472        0.81669       -0.20100
| 13> C         -0.33675        0.64105        1.87721
| 14> S          0.01945        3.31935        1.51508
| 15> C          0.87913        3.75772       -0.01249
| 16> C          1.45355        2.47144       -0.58751
| 17> N          0.48630        1.42872       -0.31021
| 18> C          0.48301        0.24988       -1.00101
| 19> O          1.29412        0.04012       -1.89066
| 20> C          2.79273        2.10661        0.02350
| 21> O          2.86897        1.91221        1.22899
| 22> N          3.89712        1.99426       -0.76805
| 23> C          5.21803        1.64479       -0.26329
| 24> C          6.19246        2.80528       -0.56712
| 25> C          7.60677        2.69678       -0.02223
| 26> C          8.06081        1.63698        0.79185
| 27> C          9.37984        1.61388        1.25616
| 28> C         10.26137        2.64241        0.92013
| 29> C          9.82513        3.69948        0.12058
| 30> C          8.50776        3.72779       -0.34574
| 31> C          5.65574        0.35687       -0.92024
| 32> O          5.78049        0.30718       -2.13682
| 33> O          5.88416       -0.73921       -0.14997
| 34> C          6.28927       -1.97688       -0.61108
| 35> H          1.66006        4.53780        0.11384
| 36> H          0.08974        4.14751       -0.69141
| 37> H          1.56363        2.63942       -1.68253
| 38> H          3.80032        2.16418       -1.78148
| 39> H          5.75633        3.73814       -0.14661
| 40> H          6.24993        2.92747       -1.67168
| 41> H          5.18376        1.49685        0.83807
| 42> H         -0.24443       -0.52180       -0.77407
| 43> H          7.41422        0.82699        1.08527
| 44> H         11.28136        2.62155        1.28160
| 45> H          9.71827        0.79684        1.88039
| 46> H          8.18810        4.55736       -0.96491
| 47> H         10.50772        4.49862       -0.13826
| 48> H          0.70406        0.59258        2.26121
| 49> H         -0.61930       -0.36448        1.50291
| 50> H         -1.01144        0.88899        2.72458
| 51> H          5.53144       -2.73591       -0.32763
| 52> H          7.25599       -2.24199       -0.13558
| 53> H          6.41987       -2.00169       -1.71404
| 54> **                         ****END OF INPUT****
 Total Charge           Charge          ....    0
 Multiplicity           Mult            ....    1
 Number of Electrons    NEL             ....  186
Dispersion correction           -0.093800323
FINAL SINGLE POINT ENERGY     -1468.910877364882
Dispersion correction            ... done
Dispersion correction           -0.093790006
FINAL SINGLE POINT ENERGY     -1468.926091339956
Dispersion correction            ... done
Dispersion correction           -0.093692649
FINAL SINGLE POINT ENERGY     -1468.931349116060
Dispersion correction            ... done
FINAL SINGLE POINT ENERGY     -1468.932478431263
FINAL SINGLE POINT ENERGY     -1468.933081384324
FINAL SINGLE POINT ENERGY     -1468.933440126568
FINAL SINGLE POINT ENERGY     -1468.933653028828
FINAL SINGLE POINT ENERGY     -1468.933768620103
FINAL SINGLE POINT ENERGY     -1468.933889721906
FINAL SINGLE POINT ENERGY     -1468.934059296958
FINAL SINGLE POINT ENERGY     -1468.941762388815
FINAL SINGLE POINT ENERGY     -1468.941589606496
FINAL SINGLE POINT ENERGY     -1468.941818713751
FINAL SINGLE POINT ENERGY     -1468.941838455807
FINAL SINGLE POINT ENERGY     -1468.941817422218
FINAL SINGLE POINT ENERGY     -1468.941886086761
FINAL SINGLE POINT ENERGY     -1468.941895806842
Dispersion correction            ... done
Dispersion correction           -0.096481784
FINAL SINGLE POINT ENERGY     -1468.941901699003
Dispersion correction            ... done
Dispersion correction           -0.096473616
FINAL SINGLE POINT ENERGY     -1468.941903327781
Dispersion correction            ... done
                    ***********************HURRAY********************

CARTESIAN COORDINATES (ANGSTROEM)
---------------------------------
  C     -1.765731    2.450268    0.646956
  C     -0.271830    2.185111    0.877424
  H     -1.965792    2.681978   -0.417091
  H     -2.105530    3.305241    1.263434
  H     -2.368397    1.561348    0.930561
  C      0.056139    1.913606    2.350999
  S      0.728604    3.675494    0.324422
  C      1.140290    2.880167   -1.273330
  C      1.303912    1.399614   -0.909434
  N      0.205132    1.095800   -0.012742
  C     -0.237791   -0.200343    0.073750
  O      0.180638   -1.119053   -0.620668
  C      2.666821    1.108099   -0.225437
  O      2.775755    0.788492    0.956806
  N      3.741876    1.247519   -1.054157
  C      5.098258    1.099414   -0.567083
  C      5.564713    2.380890    0.196467
  C      6.986646    2.298576    0.691428
  C      7.302965    1.541770    1.838395
  C      8.634179    1.399481    2.258269
  C      9.671944    2.014287    1.536792
  C      9.368288    2.776181    0.396309
  C      8.035154    2.914445   -0.021785
  C      5.997506    0.843779   -1.768139
  O      5.767683    1.272232   -2.888594
  O      7.087817    0.139713   -1.424818
  C      8.091897   -0.007207   -2.443786
  H      2.072063    3.333928   -1.661302
  H      0.331783    3.020928   -2.019603
  H      1.216559    0.736712   -1.797429
  H      3.648188    1.493344   -2.044881
  H      4.853026    2.504743    1.037350
  H      5.437076    3.244439   -0.488190
  H      5.145061    0.240385    0.132099
  H     -1.046946   -0.331483    0.843463
  H      6.492018    1.057910    2.406292
  H     10.716147    1.904809    1.867521
  H      8.864115    0.806283    3.156763
  H      7.799523    3.510527   -0.918555
  H     10.174284    3.268865   -0.169385
  H      1.119437    1.627303    2.445458
  H     -0.576206    1.086693    2.736281
  H     -0.152263    2.810918    2.967868
  H      8.869210   -0.658534   -2.008750
  H      8.521540    0.981235   -2.701801
  H      7.660949   -0.462336   -3.356936

 Multiplicity           Mult            ....    1
 Number of Electrons    NEL             ....  186
 Basis Dimension        Dim             ....  450

ORBITAL ENERGIES
----------------

  NO   OCC          E(Eh)            E(eV)
   0   2.0000     -88.086360     -2396.9517
   1   2.0000     -18.840849      -512.6856
   2   2.0000     -18.785661      -511.1838
   3   2.0000     -18.754910      -510.3470
   4   2.0000     -18.746288      -510.1124
   5   2.0000     -14.051303      -382.3554
   6   2.0000     -14.050389      -382.3305
   7   2.0000     -10.045990      -273.3653
   8   2.0000     -10.012545      -272.4552
   9   2.0000     -10.001471      -272.1539
  10   2.0000      -9.996407      -272.0161
  11   2.0000      -9.980156      -271.5739
  12   2.0000      -9.975330      -271.4425
  13   2.0000      -9.973980      -271.4058
  14   2.0000      -9.962713      -271.0992
  15   2.0000      -9.932704      -270.2826
  16   2.0000      -9.930658      -270.2269
  17   2.0000      -9.924949      -270.0716
  18   2.0000      -9.923839      -270.0414
  19   2.0000      -9.923620      -270.0354
  20   2.0000      -9.923362      -270.0284
  21   2.0000      -9.922631      -270.0085
  22   2.0000      -9.921734      -269.9841
  23   2.0000      -9.912862      -269.7427
  24   2.0000      -7.683183      -209.0700
  25   2.0000      -5.711858      -155.4276
  26   2.0000      -5.707993      -155.3224
  27   2.0000      -5.698752      -155.0709
  28   2.0000      -1.021427       -27.7944
  29   2.0000      -0.949134       -25.8272
  30   2.0000      -0.936219       -25.4758
  31   2.0000      -0.932564       -25.3763
  32   2.0000      -0.867639       -23.6096
  33   2.0000      -0.849691       -23.1213
  34   2.0000      -0.779324       -21.2065
  35   2.0000      -0.740595       -20.1526
  36   2.0000      -0.734265       -19.9804
  37   2.0000      -0.721225       -19.6255
  38   2.0000      -0.685840       -18.6627
  39   2.0000      -0.672290       -18.2940
  40   2.0000      -0.657142       -17.8817
  41   2.0000      -0.630631       -17.1603
  42   2.0000      -0.627253       -17.0684
  43   2.0000      -0.599619       -16.3165
  44   2.0000      -0.590081       -16.0569
  45   2.0000      -0.553193       -15.0531
  46   2.0000      -0.548617       -14.9286
  47   2.0000      -0.541501       -14.7350
  48   2.0000      -0.535030       -14.5589
  49   2.0000      -0.521503       -14.1908
  50   2.0000      -0.504475       -13.7275
  51   2.0000      -0.470081       -12.7916
  52   2.0000      -0.469612       -12.7788
  53   2.0000      -0.462458       -12.5841
  54   2.0000      -0.452527       -12.3139
  55   2.0000      -0.446048       -12.1376
  56   2.0000      -0.441404       -12.0112
  57   2.0000      -0.423685       -11.5291
  58   2.0000      -0.416323       -11.3287
  59   2.0000      -0.412165       -11.2156
  60   2.0000      -0.409729       -11.1493
  61   2.0000      -0.403935       -10.9916
  62   2.0000      -0.401112       -10.9148
  63   2.0000      -0.396489       -10.7890
  64   2.0000      -0.392476       -10.6798
  65   2.0000      -0.381066       -10.3693
  66   2.0000      -0.376961       -10.2576
  67   2.0000      -0.372782       -10.1439
  68   2.0000      -0.368172       -10.0185
  69   2.0000      -0.365455        -9.9445
  70   2.0000      -0.362845        -9.8735
  71   2.0000      -0.352310        -9.5868
  72   2.0000      -0.350207        -9.5296
  73   2.0000      -0.347641        -9.4598
  74   2.0000      -0.337524        -9.1845
  75   2.0000      -0.334664        -9.1067
  76   2.0000      -0.332579        -9.0499
  77   2.0000      -0.324538        -8.8311
  78   2.0000      -0.318561        -8.6685
  79   2.0000      -0.316319        -8.6075
  80   2.0000      -0.313494        -8.5306
  81   2.0000      -0.308344        -8.3905
  82   2.0000      -0.302907        -8.2425
  83   2.0000      -0.292251        -7.9525
  84   2.0000      -0.279917        -7.6169
  85   2.0000      -0.252019        -6.8578
  86   2.0000      -0.239902        -6.5281
  87   2.0000      -0.235198        -6.4001
  88   2.0000      -0.226834        -6.1725
  89   2.0000      -0.221781        -6.0350
  90   2.0000      -0.213852        -5.8192
  91   2.0000      -0.207770        -5.6537
  92   2.0000      -0.199106        -5.4179
  93   0.0000      -0.055467        -1.5093
  94   0.0000      -0.048894        -1.3305
  95   0.0000      -0.042654        -1.1607
  96   0.0000      -0.030313        -0.8249
  97   0.0000      -0.020809        -0.5662

MULLIKEN ATOMIC CHARGES
-----------------------
   0 C :    0.100352
   1 C :   -0.291751
   2 H :    0.030770
   3 H :    0.038607
   4 H :    0.029423
   5 C :    0.073521
   6 S :   -0.041015
   7 C :   -0.040444
   8 C :   -0.006781
   9 N :   -0.180260
  10 C :    0.161146
  11 O :   -0.244620
  12 C :    0.112668
  13 O :   -0.214438
  14 N :   -0.126337
  15 C :    0.049316
  16 C :    0.089939
  17 C :   -0.027608
  18 C :   -0.020119
  19 C :    0.001636
  20 C :   -0.000505
  21 C :   -0.003431
  22 C :   -0.031371
  23 C :    0.123685
  24 O :   -0.217355
  25 O :   -0.243303
  26 C :    0.112660
  27 H :    0.066957
  28 H :    0.076869
  29 H :    0.058840
  30 H :    0.133620
  31 H :    0.052898
  32 H :    0.012013
  33 H :    0.056452
  34 H :    0.005703
  35 H :    0.005468
  36 H :    0.003877
  37 H :    0.004609
  38 H :   -0.006469
  39 H :    0.001121
  40 H :    0.065039
  41 H :    0.027379
  42 H :    0.033888
  43 H :    0.059680
  44 H :    0.051197
  45 H :    0.056476
Sum of atomic charges:   -0.0000000

LOEWDIN ATOMIC CHARGES
----------------------
   0 C :   -0.076248
   1 C :   -0.072293
   2 H :    0.030781
   3 H :    0.035233
   4 H :    0.028594
   5 C :   -0.078378
   6 S :    0.222106
   7 C :   -0.132108
   8 C :   -0.022437
   9 N :   -0.029692
  10 C :    0.073439
  11 O :   -0.194704
  12 C :    0.045700
  13 O :   -0.190288
  14 N :    0.009786
  15 C :    0.007226
  16 C :   -0.024926
  17 C :   -0.030423
  18 C :   -0.025983
  19 C :   -0.026755
  20 C :   -0.034922
  21 C :   -0.032583
  22 C :   -0.037880
  23 C :    0.060757
  24 O :   -0.170828
  25 O :   -0.051857
  26 C :    0.066521
  27 H :    0.031606
  28 H :    0.028985
  29 H :    0.043262
  30 H :    0.077481
  31 H :    0.046870
  32 H :    0.031375
  33 H :    0.044989
  34 H :   -0.006798
  35 H :    0.035139
  36 H :    0.032405
  37 H :    0.033879
  38 H :    0.029154
  39 H :    0.032218
  40 H :    0.037925
  41 H :    0.029339
  42 H :    0.031913
  43 H :    0.034725
  44 H :    0.028252
  45 H :    0.029445

  Mayer bond orders larger than 0.100000
B(  0-C ,  1-C ) :   1.0194 B(  0-C ,  2-H ) :   0.9512 B(  0-C ,  3-H ) :   0.9545
B(  0-C ,  4-H ) :   0.9410 B(  1-C ,  5-C ) :   1.0389 B(  1-C ,  6-S ) :   0.9947
B(  1-C ,  9-N ) :   0.8851 B(  5-C , 40-H ) :   0.9359 B(  5-C , 41-H ) :   0.9452
B(  5-C , 42-H ) :   0.9489 B(  6-S ,  7-C ) :   1.0046 B(  7-C ,  8-C ) :   1.0373
B(  7-C , 27-H ) :   0.9377 B(  7-C , 28-H ) :   0.9333 B(  8-C ,  9-N ) :   1.0102
B(  8-C , 12-C ) :   0.8661 B(  8-C , 29-H ) :   0.8770 B(  9-N , 10-C ) :   1.1602
B( 10-C , 11-O ) :   1.9954 B( 10-C , 34-H ) :   0.9194 B( 12-C , 13-O ) :   2.0211
B( 12-C , 14-N ) :   1.2274 B( 14-N , 15-C ) :   0.9907 B( 14-N , 30-H ) :   0.8898
B( 15-C , 16-C ) :   1.0532 B( 15-C , 23-C ) :   0.9073 B( 15-C , 33-H ) :   0.8953
B( 16-C , 17-C ) :   1.0661 B( 16-C , 31-H ) :   0.9037 B( 16-C , 32-H ) :   0.9053
B( 17-C , 18-C ) :   1.3770 B( 17-C , 22-C ) :   1.3754 B( 18-C , 19-C ) :   1.3832
B( 18-C , 35-H ) :   0.9754 B( 19-C , 20-C ) :   1.3792 B( 19-C , 37-H ) :   0.9743
B( 20-C , 21-C ) :   1.3844 B( 20-C , 36-H ) :   0.9764 B( 21-C , 22-C ) :   1.3736
B( 21-C , 39-H ) :   0.9746 B( 22-C , 38-H ) :   0.9734 B( 23-C , 24-O ) :   2.0253
B( 23-C , 25-O ) :   1.2272 B( 24-O , 25-O ) :   0.1005 B( 25-O , 26-C ) :   0.9204
B( 26-C , 43-H ) :   0.9745 B( 26-C , 44-H ) :   0.9667 B( 26-C , 45-H ) :   0.9654

Dispersion correction           -0.096480238
FINAL SINGLE POINT ENERGY     -1468.941904455525

DIPOLE MOMENT
-------------
                                X             Y             Z
Electronic contribution:      0.73664      -1.83027      -3.67270
Nuclear contribution   :      0.05707       2.60388       3.29246
                        -----------------------------------------
Total Dipole Moment    :      0.79370       0.77361      -0.38025
                        -----------------------------------------
Magnitude (a.u.)       :      1.17176
Magnitude (Debye)      :      2.97838

Rotational constants in cm-1:     0.014527     0.003554     0.003291
Rotational constants in MHz :   435.494185   106.538433    98.669169

                             ****ORCA TERMINATED NORMALLY****
TOTAL RUN TIME: 0 days 0 hours 46 minutes 34 seconds 710 msec
