                         Program Version 5.0.4 -  RELEASE  -
|  1> %pal nprocs 1 END
|  2> %MaxCore 3000
|  3>
|  4> !BP86 D3BJ DEF2-SVP TightSCF
|  5> !OPT
|  6>
|  7> * xyz 0 1
|  8> C          0.14660        1.27420        0.34370
|  9> C         -0.63690        0.18400        0.01750
| 10> C         -2.02660        0.27560       -0.09020
| 11> C         -2.62840        1.52060        0.14760
| 12> C         -1.84320        2.63620        0.49190
| 13> C         -0.44560        2.52390        0.59600
| 14> Cl         0.49600        3.93500        1.05340
| 15> N          0.14500       -0.96290       -0.15740
| 16> C          1.42920       -0.62140        0.05680
| 17> O          2.33590       -1.43730        0.00520
| 18> C          1.60210        0.85790        0.37630
| 19> O          2.11260        1.05430        1.67150
| 20> C          2.42850        1.63230       -0.68630
| 21> C          3.89390        1.25010       -0.73400
| 22> H          2.34410        2.70930       -0.46790
| 23> H          1.98840        1.47590       -1.69550
| 24> O          4.20510        0.11990       -1.07390
| 25> C          4.97950        2.20380       -0.41140
| 26> C          4.85780        3.52210       -0.00350
| 27> C          6.14290        3.98130        0.17380
| 28> C          6.97420        2.92580       -0.13230
| 29> O          6.25360        1.88260       -0.47600
| 30> H         -3.70320        1.62580        0.07410
| 31> H          3.95650        4.09720        0.15350
| 32> H          6.44060        4.97170        0.49090
| 33> H          8.05540        2.93820       -0.09880
| 34> H         -2.32500        3.58700        0.68110
| 35> H         -0.19540       -1.90840       -0.38620
| 36> H          2.96960        0.55780        1.73630
| 37> Cl        -3.00820       -1.11960       -0.50410
| 38> **                         ****END OF INPUT****
 Total Charge           Charge          ....    0
 Multiplicity           Mult            ....    1
 Number of Electrons    NEL             ....  166
Dispersion correction           -0.070444606
FINAL SINGLE POINT ENERGY     -1814.168861827039
Dispersion correction            ... done
Dispersion correction           -0.070892822
FINAL SINGLE POINT ENERGY     -1814.188213663830
Dispersion correction            ... done
Dispersion correction           -0.071336988
FINAL SINGLE POINT ENERGY     -1814.194195475894
Dispersion correction            ... done
FINAL SINGLE POINT ENERGY     -1814.196625293715
FINAL SINGLE POINT ENERGY     -1814.198468997977
FINAL SINGLE POINT ENERGY     -1814.200009762814
FINAL SINGLE POINT ENERGY     -1814.201102858896
FINAL SINGLE POINT ENERGY     -1814.201791046374
FINAL SINGLE POINT ENERGY     -1814.202082578521
FINAL SINGLE POINT ENERGY     -1814.202183376941
FINAL SINGLE POINT ENERGY     -1814.202219117377
FINAL SINGLE POINT ENERGY     -1814.202233269035
Dispersion correction            ... done
Dispersion correction           -0.072432194
FINAL SINGLE POINT ENERGY     -1814.202237312551
Dispersion correction            ... done
Dispersion correction           -0.072435114
FINAL SINGLE POINT ENERGY     -1814.202239932785
Dispersion correction            ... done
                    ***********************HURRAY********************

CARTESIAN COORDINATES (ANGSTROEM)
---------------------------------
  C      0.165384    1.516443    0.308194
  C     -0.453524    0.253938    0.155027
  C     -1.846511    0.134220    0.069962
  C     -2.631549    1.300096    0.146043
  C     -2.030722    2.558499    0.296645
  C     -0.624961    2.664568    0.371544
  Cl     0.113655    4.239193    0.545685
  N      0.511269   -0.757097    0.117717
  C      1.786893   -0.247481    0.307162
  O      2.817970   -0.865308    0.505196
  C      1.667679    1.310212    0.297204
  O      2.287936    1.814237    1.461968
  C      2.266446    1.883586   -1.026195
  C      3.699912    1.440667   -1.330294
  H      2.183159    2.986826   -0.954781
  H      1.650556    1.536063   -1.877883
  O      3.935394    0.591432   -2.184321
  C      4.765843    2.098175   -0.558922
  C      4.774934    3.125145    0.381433
  C      6.140685    3.330363    0.745531
  C      6.868302    2.421176    0.000232
  O      6.055344    1.679694   -0.786759
  H     -3.725345    1.211877    0.085300
  H      3.892775    3.644209    0.769461
  H      6.539538    4.056153    1.462684
  H      7.937980    2.196023   -0.070041
  H     -2.646808    3.465742    0.357117
  H      0.285777   -1.754470    0.114830
  H      3.124650    1.307019    1.552933
  Cl    -2.567665   -1.448299   -0.110574

 Multiplicity           Mult            ....    1
 Number of Electrons    NEL             ....  166
 Basis Dimension        Dim             ....  347

ORBITAL ENERGIES
----------------

  NO   OCC          E(Eh)            E(eV)
   0   2.0000    -100.725643     -2740.8841
   1   2.0000    -100.719408     -2740.7144
   2   2.0000     -18.861227      -513.2401
   3   2.0000     -18.800922      -511.5991
   4   2.0000     -18.782867      -511.1078
   5   2.0000     -18.762422      -510.5515
   6   2.0000     -14.083568      -383.2334
   7   2.0000     -10.031459      -272.9699
   8   2.0000     -10.006165      -272.2816
   9   2.0000      -9.999337      -272.0958
  10   2.0000      -9.995207      -271.9834
  11   2.0000      -9.993979      -271.9500
  12   2.0000      -9.993268      -271.9307
  13   2.0000      -9.985129      -271.7092
  14   2.0000      -9.975493      -271.4470
  15   2.0000      -9.954070      -270.8640
  16   2.0000      -9.952799      -270.8294
  17   2.0000      -9.947586      -270.6876
  18   2.0000      -9.938699      -270.4457
  19   2.0000      -9.934763      -270.3387
  20   2.0000      -9.934227      -270.3241
  21   2.0000      -9.210382      -250.6272
  22   2.0000      -9.204133      -250.4572
  23   2.0000      -7.041420      -191.6068
  24   2.0000      -7.035151      -191.4362
  25   2.0000      -7.029880      -191.2928
  26   2.0000      -7.029684      -191.2874
  27   2.0000      -7.023880      -191.1295
  28   2.0000      -7.023167      -191.1101
  29   2.0000      -1.031851       -28.0781
  30   2.0000      -0.978955       -26.6387
  31   2.0000      -0.944170       -25.6922
  32   2.0000      -0.933334       -25.3973
  33   2.0000      -0.902015       -24.5451
  34   2.0000      -0.830809       -22.6075
  35   2.0000      -0.817050       -22.2331
  36   2.0000      -0.763500       -20.7759
  37   2.0000      -0.740970       -20.1628
  38   2.0000      -0.732718       -19.9383
  39   2.0000      -0.705504       -19.1977
  40   2.0000      -0.685255       -18.6467
  41   2.0000      -0.667987       -18.1769
  42   2.0000      -0.639780       -17.4093
  43   2.0000      -0.587148       -15.9771
  44   2.0000      -0.573633       -15.6093
  45   2.0000      -0.560756       -15.2589
  46   2.0000      -0.553222       -15.0539
  47   2.0000      -0.542789       -14.7700
  48   2.0000      -0.503744       -13.7076
  49   2.0000      -0.501481       -13.6460
  50   2.0000      -0.489494       -13.3198
  51   2.0000      -0.474407       -12.9093
  52   2.0000      -0.456931       -12.4337
  53   2.0000      -0.453098       -12.3294
  54   2.0000      -0.438121       -11.9219
  55   2.0000      -0.426151       -11.5962
  56   2.0000      -0.424876       -11.5615
  57   2.0000      -0.418455       -11.3868
  58   2.0000      -0.415737       -11.3128
  59   2.0000      -0.398437       -10.8420
  60   2.0000      -0.393085       -10.6964
  61   2.0000      -0.385342       -10.4857
  62   2.0000      -0.378183       -10.2909
  63   2.0000      -0.373490       -10.1632
  64   2.0000      -0.370813       -10.0903
  65   2.0000      -0.366468        -9.9721
  66   2.0000      -0.356797        -9.7089
  67   2.0000      -0.349182        -9.5017
  68   2.0000      -0.343445        -9.3456
  69   2.0000      -0.338661        -9.2154
  70   2.0000      -0.334124        -9.0920
  71   2.0000      -0.320832        -8.7303
  72   2.0000      -0.311283        -8.4705
  73   2.0000      -0.297195        -8.0871
  74   2.0000      -0.287300        -7.8178
  75   2.0000      -0.286140        -7.7863
  76   2.0000      -0.272363        -7.4114
  77   2.0000      -0.260715        -7.0944
  78   2.0000      -0.239519        -6.5176
  79   2.0000      -0.232315        -6.3216
  80   2.0000      -0.224832        -6.1180
  81   2.0000      -0.219716        -5.9788
  82   2.0000      -0.206142        -5.6094
  83   0.0000      -0.096170        -2.6169
  84   0.0000      -0.079794        -2.1713
  85   0.0000      -0.067293        -1.8311
  86   0.0000      -0.033014        -0.8984
  87   0.0000      -0.020981        -0.5709

MULLIKEN ATOMIC CHARGES
-----------------------
   0 C :    0.074170
   1 C :    0.068368
   2 C :    0.024444
   3 C :   -0.033568
   4 C :    0.004098
   5 C :   -0.012094
   6 Cl:   -0.054619
   7 N :   -0.066157
   8 C :    0.151800
   9 O :   -0.159114
  10 C :   -0.149501
  11 O :   -0.225064
  12 C :    0.130752
  13 C :    0.017742
  14 H :    0.044311
  15 H :    0.028326
  16 O :   -0.150583
  17 C :    0.042882
  18 C :   -0.045836
  19 C :   -0.028289
  20 C :    0.126120
  21 O :   -0.149238
  22 H :    0.012260
  23 H :    0.026913
  24 H :    0.024052
  25 H :    0.041422
  26 H :    0.006811
  27 H :    0.136011
  28 H :    0.183733
  29 Cl:   -0.070152
Sum of atomic charges:   -0.0000000

LOEWDIN ATOMIC CHARGES
----------------------
   0 C :   -0.058848
   1 C :    0.010647
   2 C :   -0.155761
   3 C :   -0.030059
   4 C :   -0.053363
   5 C :   -0.113003
   6 Cl:    0.144513
   7 N :    0.040207
   8 C :    0.053087
   9 O :   -0.147038
  10 C :    0.013304
  11 O :   -0.083202
  12 C :   -0.057306
  13 C :    0.032809
  14 H :    0.036704
  15 H :    0.048876
  16 O :   -0.130619
  17 C :   -0.026058
  18 C :   -0.047848
  19 C :   -0.079598
  20 C :    0.051046
  21 O :    0.048217
  22 H :    0.045179
  23 H :    0.039234
  24 H :    0.040800
  25 H :    0.034145
  26 H :    0.042405
  27 H :    0.092697
  28 H :    0.079674
  29 Cl:    0.129157

  Mayer bond orders larger than 0.100000
B(  0-C ,  1-C ) :   1.3544 B(  0-C ,  5-C ) :   1.4560 B(  0-C , 10-C ) :   0.9254
B(  1-C ,  2-C ) :   1.3785 B(  1-C ,  7-N ) :   1.1236 B(  2-C ,  3-C ) :   1.3464
B(  2-C , 29-Cl) :   0.9932 B(  3-C ,  4-C ) :   1.3454 B(  3-C , 22-H ) :   0.9765
B(  4-C ,  5-C ) :   1.3162 B(  4-C , 26-H ) :   0.9794 B(  5-C ,  6-Cl) :   1.0350
B(  7-N ,  8-C ) :   1.1346 B(  7-N , 27-H ) :   0.8989 B(  8-C ,  9-O ) :   2.1331
B(  8-C , 10-C ) :   0.8413 B( 10-C , 11-O ) :   1.1424 B( 10-C , 12-C ) :   0.9654
B( 11-O , 28-H ) :   0.9335 B( 12-C , 13-C ) :   1.0215 B( 12-C , 14-H ) :   0.8913
B( 12-C , 15-H ) :   0.8814 B( 13-C , 16-O ) :   2.1590 B( 13-C , 17-C ) :   0.9665
B( 17-C , 18-C ) :   1.4610 B( 17-C , 20-C ) :   0.1065 B( 17-C , 21-O ) :   1.1458
B( 18-C , 19-C ) :   1.2468 B( 18-C , 23-H ) :   0.9789 B( 19-C , 20-C ) :   1.4714
B( 19-C , 24-H ) :   0.9891 B( 20-C , 21-O ) :   1.1897 B( 20-C , 25-H ) :   0.9905

Dispersion correction           -0.072435835
FINAL SINGLE POINT ENERGY     -1814.202241083799

DIPOLE MOMENT
-------------
                                X             Y             Z
Electronic contribution:    -13.74521      -5.11218      -0.03446
Nuclear contribution   :     13.07356       5.85835       0.67332
                        -----------------------------------------
Total Dipole Moment    :     -0.67165       0.74618       0.63886
                        -----------------------------------------
Magnitude (a.u.)       :      1.18997
Magnitude (Debye)      :      3.02467

Rotational constants in cm-1:     0.016605     0.005421     0.004438
Rotational constants in MHz :   497.799176   162.521455   133.037672

                             ****ORCA TERMINATED NORMALLY****
TOTAL RUN TIME: 0 days 0 hours 9 minutes 9 seconds 311 msec
