                         Program Version 5.0.4 -  RELEASE  -
|  1> %pal nprocs 1 END
|  2> %MaxCore 3000
|  3>
|  4> !BP86 D3BJ DEF2-SVP TightSCF
|  5> !OPT
|  6>
|  7> * xyz 0 1
|  8> C          0.14900        1.24780        0.36290
|  9> C         -0.64760        0.16410        0.03540
| 10> C         -2.04590        0.27620       -0.06800
| 11> C         -2.61990        1.53690        0.17990
| 12> C         -1.81730        2.63710        0.52570
| 13> C         -0.42400        2.50380        0.62310
| 14> C         -2.94080       -0.87730       -0.42280
| 15> H         -2.38400       -1.81710       -0.59680
| 16> H         -3.50390       -0.63630       -1.34900
| 17> H         -3.66290       -1.05270        0.40220
| 18> Cl         0.53770        3.90030        1.08520
| 19> N          0.13500       -0.98630       -0.14220
| 20> C          1.42120       -0.65100        0.07080
| 21> O          2.32420       -1.47050        0.01470
| 22> C          1.60190        0.82480        0.39060
| 23> O          2.11720        1.02010        1.68430
| 24> C          2.42840        1.59170       -0.67750
| 25> C          3.89860        1.22630       -0.70720
| 26> H          2.33220        2.67060       -0.47790
| 27> H          1.99580        1.41530       -1.68670
| 28> O          4.22630        0.09090       -1.01260
| 29> C          4.96940        2.20400       -0.40540
| 30> C          4.82700        3.53470       -0.04650
| 31> C          6.10390        4.01650        0.12780
| 32> C          6.95160        2.96160       -0.13090
| 33> O          6.24810        1.89730       -0.44500
| 34> H         -3.69300        1.66820        0.11320
| 35> H          3.91750        4.10460        0.07930
| 36> H          6.38530        5.02180        0.41150
| 37> H          8.03210        2.98960       -0.08630
| 38> H         -2.28360        3.59430        0.72150
| 39> H         -0.19460       -1.93420       -0.37140
| 40> H          2.96620        0.51030        1.75130
| 41> **                         ****END OF INPUT****
 Total Charge           Charge          ....    0
 Multiplicity           Mult            ....    1
 Number of Electrons    NEL             ....  158
Dispersion correction           -0.071704946
FINAL SINGLE POINT ENERGY     -1393.954311827999
Dispersion correction            ... done
Dispersion correction           -0.072093801
FINAL SINGLE POINT ENERGY     -1393.974086125705
Dispersion correction            ... done
Dispersion correction           -0.072472119
FINAL SINGLE POINT ENERGY     -1393.980141263650
Dispersion correction            ... done
FINAL SINGLE POINT ENERGY     -1393.982540763815
FINAL SINGLE POINT ENERGY     -1393.984400190194
FINAL SINGLE POINT ENERGY     -1393.986024769237
FINAL SINGLE POINT ENERGY     -1393.987225412966
FINAL SINGLE POINT ENERGY     -1393.988053109113
FINAL SINGLE POINT ENERGY     -1393.988467351643
FINAL SINGLE POINT ENERGY     -1393.988595910721
FINAL SINGLE POINT ENERGY     -1393.989368504853
FINAL SINGLE POINT ENERGY     -1393.989701893760
FINAL SINGLE POINT ENERGY     -1393.989936579571
FINAL SINGLE POINT ENERGY     -1393.990036203071
FINAL SINGLE POINT ENERGY     -1393.989894863990
FINAL SINGLE POINT ENERGY     -1393.990098162618
FINAL SINGLE POINT ENERGY     -1393.990109620073
Dispersion correction            ... done
Dispersion correction           -0.073615515
FINAL SINGLE POINT ENERGY     -1393.990120096638
Dispersion correction            ... done
Dispersion correction           -0.073610393
FINAL SINGLE POINT ENERGY     -1393.990122783258
Dispersion correction            ... done
                    ***********************HURRAY********************

CARTESIAN COORDINATES (ANGSTROEM)
---------------------------------
  C      0.114117    1.581299    0.262895
  C     -0.544752    0.340719    0.101875
  C     -1.940390    0.220009   -0.015468
  C     -2.667648    1.429892    0.045272
  C     -2.048293    2.679369    0.203750
  C     -0.644484    2.751357    0.305508
  C     -2.601478   -1.123839   -0.185572
  H     -2.233131   -1.649546   -1.092882
  H     -3.698997   -1.021739   -0.282340
  H     -2.405852   -1.790939    0.682173
  Cl     0.135058    4.308802    0.485921
  N      0.408350   -0.695161    0.084440
  C      1.690372   -0.216945    0.295213
  O      2.702835   -0.860566    0.515122
  C      1.609668    1.340512    0.278941
  O      2.225814    1.831423    1.452632
  C      2.245470    1.893809   -1.036410
  C      3.672566    1.419610   -1.315670
  H      2.184656    2.998925   -0.970968
  H      1.635594    1.555656   -1.896124
  O      3.905907    0.564637   -2.165152
  C      4.739819    2.055448   -0.527440
  C      4.755088    3.082678    0.412160
  C      6.118772    3.259488    0.798626
  C      6.839358    2.334994    0.065699
  O      6.024062    1.609943   -0.734163
  H     -3.765123    1.388436   -0.036952
  H      3.876820    3.618983    0.785279
  H      6.520920    3.977191    1.522060
  H      7.905080    2.087424    0.012932
  H     -2.642895    3.601827    0.248145
  H      0.186782   -1.692115    0.097584
  H      3.047034    1.301820    1.556117

 Multiplicity           Mult            ....    1
 Number of Electrons    NEL             ....  158
 Basis Dimension        Dim             ....  358

ORBITAL ENERGIES
----------------

  NO   OCC          E(Eh)            E(eV)
   0   2.0000    -100.710978     -2740.4850
   1   2.0000     -18.857719      -513.1446
   2   2.0000     -18.794762      -511.4315
   3   2.0000     -18.776525      -510.9352
   4   2.0000     -18.758257      -510.4381
   5   2.0000     -14.076534      -383.0420
   6   2.0000     -10.024439      -272.7789
   7   2.0000      -9.998605      -272.0759
   8   2.0000      -9.994995      -271.9777
   9   2.0000      -9.984530      -271.6929
  10   2.0000      -9.981734      -271.6168
  11   2.0000      -9.978092      -271.5177
  12   2.0000      -9.971621      -271.3416
  13   2.0000      -9.945480      -270.6303
  14   2.0000      -9.940681      -270.4997
  15   2.0000      -9.939379      -270.4642
  16   2.0000      -9.938952      -270.4526
  17   2.0000      -9.934808      -270.3399
  18   2.0000      -9.934715      -270.3373
  19   2.0000      -9.931425      -270.2478
  20   2.0000      -9.928614      -270.1713
  21   2.0000      -9.195676      -250.2271
  22   2.0000      -7.026633      -191.2044
  23   2.0000      -7.015447      -190.9000
  24   2.0000      -7.014761      -190.8813
  25   2.0000      -1.028259       -27.9804
  26   2.0000      -0.972100       -26.4522
  27   2.0000      -0.937540       -25.5118
  28   2.0000      -0.928947       -25.2779
  29   2.0000      -0.890885       -24.2422
  30   2.0000      -0.816399       -22.2153
  31   2.0000      -0.769123       -20.9289
  32   2.0000      -0.737905       -20.0794
  33   2.0000      -0.732433       -19.9305
  34   2.0000      -0.704457       -19.1693
  35   2.0000      -0.694146       -18.8887
  36   2.0000      -0.673799       -18.3350
  37   2.0000      -0.634211       -17.2577
  38   2.0000      -0.625473       -17.0200
  39   2.0000      -0.575645       -15.6641
  40   2.0000      -0.566163       -15.4061
  41   2.0000      -0.556582       -15.1454
  42   2.0000      -0.543475       -14.7887
  43   2.0000      -0.532023       -14.4771
  44   2.0000      -0.500117       -13.6089
  45   2.0000      -0.486464       -13.2374
  46   2.0000      -0.481512       -13.1026
  47   2.0000      -0.468123       -12.7383
  48   2.0000      -0.444178       -12.0867
  49   2.0000      -0.441038       -12.0013
  50   2.0000      -0.432618       -11.7721
  51   2.0000      -0.421599       -11.4723
  52   2.0000      -0.413422       -11.2498
  53   2.0000      -0.408815       -11.1244
  54   2.0000      -0.400274       -10.8920
  55   2.0000      -0.398396       -10.8409
  56   2.0000      -0.389647       -10.6028
  57   2.0000      -0.385701       -10.4954
  58   2.0000      -0.373724       -10.1695
  59   2.0000      -0.371508       -10.1093
  60   2.0000      -0.368167       -10.0183
  61   2.0000      -0.362196        -9.8558
  62   2.0000      -0.356068        -9.6891
  63   2.0000      -0.349571        -9.5123
  64   2.0000      -0.340152        -9.2560
  65   2.0000      -0.334688        -9.1073
  66   2.0000      -0.334523        -9.1028
  67   2.0000      -0.329560        -8.9678
  68   2.0000      -0.316230        -8.6050
  69   2.0000      -0.311441        -8.4747
  70   2.0000      -0.282530        -7.6880
  71   2.0000      -0.278672        -7.5831
  72   2.0000      -0.268360        -7.3024
  73   2.0000      -0.254923        -6.9368
  74   2.0000      -0.232333        -6.3221
  75   2.0000      -0.226054        -6.1512
  76   2.0000      -0.221045        -6.0150
  77   2.0000      -0.212601        -5.7852
  78   2.0000      -0.201600        -5.4858
  79   0.0000      -0.091397        -2.4870
  80   0.0000      -0.070261        -1.9119
  81   0.0000      -0.056966        -1.5501
  82   0.0000      -0.024055        -0.6546
  83   0.0000      -0.011822        -0.3217

MULLIKEN ATOMIC CHARGES
-----------------------
   0 C :    0.102202
   1 C :    0.027508
   2 C :   -0.051467
   3 C :   -0.060703
   4 C :    0.017890
   5 C :   -0.034307
   6 C :   -0.000839
   7 H :    0.051594
   8 H :    0.032925
   9 H :    0.050156
  10 Cl:   -0.064677
  11 N :   -0.085190
  12 C :    0.142382
  13 O :   -0.166672
  14 C :   -0.143028
  15 O :   -0.226330
  16 C :    0.130520
  17 C :    0.018406
  18 H :    0.043439
  19 H :    0.025826
  20 O :   -0.153422
  21 C :    0.041964
  22 C :   -0.045318
  23 C :   -0.028752
  24 C :    0.125104
  25 O :   -0.150033
  26 H :   -0.001664
  27 H :    0.027313
  28 H :    0.022810
  29 H :    0.039892
  30 H :   -0.003397
  31 H :    0.134171
  32 H :    0.181696
Sum of atomic charges:   -0.0000000

LOEWDIN ATOMIC CHARGES
----------------------
   0 C :   -0.063754
   1 C :    0.030749
   2 C :   -0.059258
   3 C :   -0.018321
   4 C :   -0.059705
   5 C :   -0.112682
   6 C :   -0.065605
   7 H :    0.041345
   8 H :    0.041818
   9 H :    0.040459
  10 Cl:    0.135582
  11 N :    0.034172
  12 C :    0.050784
  13 O :   -0.154340
  14 C :    0.013438
  15 O :   -0.084356
  16 C :   -0.057546
  17 C :    0.032989
  18 H :    0.036322
  19 H :    0.048122
  20 O :   -0.133170
  21 C :   -0.025662
  22 C :   -0.047816
  23 C :   -0.080329
  24 C :    0.049438
  25 O :    0.047411
  26 H :    0.036168
  27 H :    0.039385
  28 H :    0.040244
  29 H :    0.033432
  30 H :    0.038496
  31 H :    0.093956
  32 H :    0.078235

  Mayer bond orders larger than 0.100000
B(  0-C ,  1-C ) :   1.3478 B(  0-C ,  5-C ) :   1.4582 B(  0-C , 14-C ) :   0.9275
B(  1-C ,  2-C ) :   1.3748 B(  1-C , 11-N ) :   1.0956 B(  2-C ,  3-C ) :   1.3401
B(  2-C ,  6-C ) :   1.0784 B(  3-C ,  4-C ) :   1.3468 B(  3-C , 26-H ) :   0.9673
B(  4-C ,  5-C ) :   1.3313 B(  4-C , 30-H ) :   0.9794 B(  5-C , 10-Cl) :   1.0244
B(  6-C ,  7-H ) :   0.9488 B(  6-C ,  8-H ) :   0.9401 B(  6-C ,  9-H ) :   0.9484
B( 11-N , 12-C ) :   1.1465 B( 11-N , 31-H ) :   0.9055 B( 12-C , 13-O ) :   2.1246
B( 12-C , 14-C ) :   0.8420 B( 14-C , 15-O ) :   1.1403 B( 14-C , 16-C ) :   0.9658
B( 15-O , 32-H ) :   0.9341 B( 16-C , 17-C ) :   1.0230 B( 16-C , 18-H ) :   0.8910
B( 16-C , 19-H ) :   0.8809 B( 17-C , 20-O ) :   2.1576 B( 17-C , 21-C ) :   0.9656
B( 21-C , 22-C ) :   1.4633 B( 21-C , 24-C ) :   0.1067 B( 21-C , 25-O ) :   1.1451
B( 22-C , 23-C ) :   1.2456 B( 22-C , 27-H ) :   0.9785 B( 23-C , 24-C ) :   1.4719
B( 23-C , 28-H ) :   0.9891 B( 24-C , 25-O ) :   1.1895 B( 24-C , 29-H ) :   0.9906

Dispersion correction           -0.073605288
FINAL SINGLE POINT ENERGY     -1393.990123839265

DIPOLE MOMENT
-------------
                                X             Y             Z
Electronic contribution:      5.69424       8.20729       0.64692
Nuclear contribution   :     -6.82448      -8.07628      -0.09236
                        -----------------------------------------
Total Dipole Moment    :     -1.13024       0.13101       0.55455
                        -----------------------------------------
Magnitude (a.u.)       :      1.26575
Magnitude (Debye)      :      3.21729

Rotational constants in cm-1:     0.018131     0.006344     0.005177
Rotational constants in MHz :   543.552702   190.188036   155.190798

                             ****ORCA TERMINATED NORMALLY****
TOTAL RUN TIME: 0 days 0 hours 18 minutes 15 seconds 575 msec
