                         Program Version 5.0.4 -  RELEASE  -
|  1> %pal nprocs 1 END
|  2> %MaxCore 3000
|  3>
|  4> !BP86 D3BJ DEF2-SVP TightSCF
|  5> !OPT
|  6>
|  7> * xyz 0 1
|  8> C          0.14830        1.26750        0.34860
|  9> C         -0.64270        0.18840        0.00920
| 10> C         -2.02770        0.28980       -0.10450
| 11> C         -2.62310        1.53540        0.14170
| 12> C         -1.83200        2.64300        0.50090
| 13> C         -0.43520        2.51940        0.61060
| 14> Cl         0.51620        3.91790        1.08620
| 15> N          0.12490       -0.96480       -0.17420
| 16> C          1.41240       -0.63880        0.04770
| 17> O          2.31120       -1.46290       -0.01080
| 18> C          1.59910        0.83680        0.38120
| 19> O          2.10870        1.01920        1.67880
| 20> C          2.43230        1.61060       -0.67580
| 21> C          3.90000        1.23610       -0.70930
| 22> H          2.34130        2.68790       -0.46320
| 23> H          2.00010        1.44760       -1.68740
| 24> O          4.22010        0.10160       -1.02580
| 25> C          4.97730        2.20460       -0.40170
| 26> C          4.84370        3.53270       -0.02990
| 27> C          6.12410        4.00590        0.14280
| 28> C          6.96490        2.94880       -0.12970
| 29> O          6.25400        1.89130       -0.45010
| 30> H         -3.69700        1.64390        0.06230
| 31> H          3.93790        4.10630        0.10510
| 32> H          6.41230        5.00700        0.43420
| 33> H          8.04560        2.97050       -0.09030
| 34> H         -2.30780        3.59540        0.69710
| 35> H         -0.22950       -1.90240       -0.41420
| 36> H          2.95600        0.50630        1.74470
| 37> H         -2.62910       -0.56940       -0.37160
| 38> **                         ****END OF INPUT****
 Total Charge           Charge          ....    0
 Multiplicity           Mult            ....    1
 Number of Electrons    NEL             ....  150
Dispersion correction           -0.066008323
FINAL SINGLE POINT ENERGY     -1354.662800045707
Dispersion correction            ... done
Dispersion correction           -0.066446364
FINAL SINGLE POINT ENERGY     -1354.682753940565
Dispersion correction            ... done
Dispersion correction           -0.066850177
FINAL SINGLE POINT ENERGY     -1354.688677965439
Dispersion correction            ... done
FINAL SINGLE POINT ENERGY     -1354.691060016738
FINAL SINGLE POINT ENERGY     -1354.692890758894
FINAL SINGLE POINT ENERGY     -1354.694494501389
FINAL SINGLE POINT ENERGY     -1354.695687405438
FINAL SINGLE POINT ENERGY     -1354.696513604623
FINAL SINGLE POINT ENERGY     -1354.696931348323
FINAL SINGLE POINT ENERGY     -1354.697054336175
FINAL SINGLE POINT ENERGY     -1354.697115140813
FINAL SINGLE POINT ENERGY     -1354.697140135651
Dispersion correction            ... done
Dispersion correction           -0.067966456
FINAL SINGLE POINT ENERGY     -1354.697146725270
Dispersion correction            ... done
Dispersion correction           -0.067959824
FINAL SINGLE POINT ENERGY     -1354.697150847783
Dispersion correction            ... done
                    ***********************HURRAY********************

CARTESIAN COORDINATES (ANGSTROEM)
---------------------------------
  C      0.164945    1.505672    0.311293
  C     -0.463002    0.244583    0.162473
  C     -1.852889    0.112159    0.071261
  C     -2.624365    1.289204    0.140987
  C     -2.031156    2.552435    0.288416
  C     -0.625672    2.653321    0.365704
  Cl     0.116914    4.229445    0.533693
  N      0.517391   -0.762170    0.133642
  C      1.788903   -0.248026    0.324271
  O      2.821950   -0.862170    0.531270
  C      1.666322    1.306707    0.303328
  O      2.288498    1.819208    1.464390
  C      2.265951    1.871818   -1.024022
  C      3.699699    1.430437   -1.325149
  H      2.180504    2.975303   -0.959397
  H      1.650476    1.518184   -1.873410
  O      3.938425    0.576120   -2.173603
  C      4.764659    2.096487   -0.559104
  C      4.770835    3.129158    0.374767
  C      6.136320    3.342159    0.735785
  C      6.866656    2.431307   -0.004752
  O      6.055633    1.681654   -0.786091
  H     -3.720690    1.218439    0.077923
  H      3.886595    3.645934    0.761084
  H      6.533192    4.073864    1.448044
  H      7.937199    2.210190   -0.074786
  H     -2.642270    3.463431    0.343469
  H      0.321833   -1.764935    0.146334
  H      3.122137    1.307687    1.559650
  H     -2.328694   -0.872005   -0.044871

 Multiplicity           Mult            ....    1
 Number of Electrons    NEL             ....  150
 Basis Dimension        Dim             ....  334

ORBITAL ENERGIES
----------------

  NO   OCC          E(Eh)            E(eV)
   0   2.0000    -100.713865     -2740.5636
   1   2.0000     -18.858606      -513.1687
   2   2.0000     -18.796231      -511.4714
   3   2.0000     -18.778006      -510.9755
   4   2.0000     -18.759308      -510.4667
   5   2.0000     -14.078490      -383.0952
   6   2.0000     -10.026196      -272.8267
   7   2.0000     -10.000484      -272.1270
   8   2.0000      -9.996119      -272.0082
   9   2.0000      -9.989216      -271.8204
  10   2.0000      -9.984160      -271.6828
  11   2.0000      -9.982579      -271.6398
  12   2.0000      -9.972580      -271.3677
  13   2.0000      -9.944311      -270.5985
  14   2.0000      -9.943838      -270.5856
  15   2.0000      -9.941921      -270.5334
  16   2.0000      -9.938020      -270.4273
  17   2.0000      -9.935758      -270.3657
  18   2.0000      -9.932245      -270.2701
  19   2.0000      -9.930117      -270.2122
  20   2.0000      -9.198609      -250.3069
  21   2.0000      -7.029559      -191.2840
  22   2.0000      -7.018405      -190.9805
  23   2.0000      -7.017665      -190.9604
  24   2.0000      -1.029147       -28.0045
  25   2.0000      -0.973807       -26.4986
  26   2.0000      -0.939087       -25.5539
  27   2.0000      -0.930070       -25.3085
  28   2.0000      -0.892899       -24.2970
  29   2.0000      -0.819650       -22.3038
  30   2.0000      -0.766728       -20.8637
  31   2.0000      -0.738395       -20.0927
  32   2.0000      -0.731154       -19.8957
  33   2.0000      -0.702418       -19.1138
  34   2.0000      -0.679297       -18.4846
  35   2.0000      -0.672453       -18.2984
  36   2.0000      -0.632085       -17.1999
  37   2.0000      -0.582766       -15.8579
  38   2.0000      -0.567192       -15.4341
  39   2.0000      -0.557531       -15.1712
  40   2.0000      -0.547578       -14.9003
  41   2.0000      -0.539593       -14.6831
  42   2.0000      -0.501035       -13.6339
  43   2.0000      -0.495034       -13.4706
  44   2.0000      -0.484386       -13.1808
  45   2.0000      -0.470081       -12.7915
  46   2.0000      -0.451985       -12.2991
  47   2.0000      -0.436966       -11.8904
  48   2.0000      -0.433320       -11.7912
  49   2.0000      -0.422542       -11.4979
  50   2.0000      -0.415141       -11.2965
  51   2.0000      -0.413085       -11.2406
  52   2.0000      -0.407492       -11.0884
  53   2.0000      -0.391767       -10.6605
  54   2.0000      -0.389690       -10.6040
  55   2.0000      -0.376426       -10.2431
  56   2.0000      -0.373551       -10.1648
  57   2.0000      -0.365546        -9.9470
  58   2.0000      -0.361838        -9.8461
  59   2.0000      -0.354190        -9.6380
  60   2.0000      -0.349144        -9.5007
  61   2.0000      -0.338244        -9.2041
  62   2.0000      -0.335608        -9.1324
  63   2.0000      -0.331231        -9.0133
  64   2.0000      -0.321771        -8.7558
  65   2.0000      -0.314418        -8.5557
  66   2.0000      -0.286806        -7.8044
  67   2.0000      -0.281324        -7.6552
  68   2.0000      -0.269313        -7.3284
  69   2.0000      -0.256366        -6.9761
  70   2.0000      -0.238014        -6.4767
  71   2.0000      -0.227818        -6.1992
  72   2.0000      -0.222248        -6.0477
  73   2.0000      -0.217625        -5.9219
  74   2.0000      -0.202788        -5.5182
  75   0.0000      -0.092611        -2.5201
  76   0.0000      -0.072988        -1.9861
  77   0.0000      -0.060726        -1.6524
  78   0.0000      -0.026174        -0.7122
  79   0.0000      -0.012851        -0.3497

MULLIKEN ATOMIC CHARGES
-----------------------
   0 C :    0.081056
   1 C :    0.096540
   2 C :   -0.051216
   3 C :   -0.006018
   4 C :    0.013674
   5 C :   -0.027896
   6 Cl:   -0.060802
   7 N :   -0.081676
   8 C :    0.142176
   9 O :   -0.165690
  10 C :   -0.138833
  11 O :   -0.226260
  12 C :    0.130734
  13 C :    0.017609
  14 H :    0.043506
  15 H :    0.026563
  16 O :   -0.152832
  17 C :    0.042770
  18 C :   -0.045195
  19 C :   -0.028761
  20 C :    0.125343
  21 O :   -0.149848
  22 H :    0.017333
  23 H :    0.027009
  24 H :    0.023087
  25 H :    0.040275
  26 H :    0.000302
  27 H :    0.135996
  28 H :    0.182104
  29 H :   -0.011049
Sum of atomic charges:   -0.0000000

LOEWDIN ATOMIC CHARGES
----------------------
   0 C :   -0.064216
   1 C :    0.032368
   2 C :   -0.064298
   3 C :   -0.011820
   4 C :   -0.060271
   5 C :   -0.107193
   6 Cl:    0.139212
   7 N :    0.035023
   8 C :    0.050558
   9 O :   -0.153266
  10 C :    0.012738
  11 O :   -0.084434
  12 C :   -0.057425
  13 C :    0.032995
  14 H :    0.036308
  15 H :    0.048294
  16 O :   -0.132526
  17 C :   -0.025682
  18 C :   -0.047764
  19 C :   -0.080160
  20 C :    0.049817
  21 O :    0.047607
  22 H :    0.040206
  23 H :    0.039285
  24 H :    0.040365
  25 H :    0.033603
  26 H :    0.038982
  27 H :    0.096651
  28 H :    0.078621
  29 H :    0.036424

  Mayer bond orders larger than 0.100000
B(  0-C ,  1-C ) :   1.3464 B(  0-C ,  5-C ) :   1.4709 B(  0-C , 10-C ) :   0.9342
B(  1-C ,  2-C ) :   1.3554 B(  1-C ,  7-N ) :   1.0743 B(  2-C ,  3-C ) :   1.3228
B(  2-C , 29-H ) :   0.9879 B(  3-C ,  4-C ) :   1.3783 B(  3-C , 22-H ) :   0.9649
B(  4-C ,  5-C ) :   1.3350 B(  4-C , 26-H ) :   0.9789 B(  5-C ,  6-Cl) :   1.0323
B(  7-N ,  8-C ) :   1.1493 B(  7-N , 27-H ) :   0.9124 B(  8-C ,  9-O ) :   2.1255
B(  8-C , 10-C ) :   0.8409 B( 10-C , 11-O ) :   1.1408 B( 10-C , 12-C ) :   0.9650
B( 11-O , 28-H ) :   0.9340 B( 12-C , 13-C ) :   1.0226 B( 12-C , 14-H ) :   0.8914
B( 12-C , 15-H ) :   0.8813 B( 13-C , 16-O ) :   2.1575 B( 13-C , 17-C ) :   0.9661
B( 17-C , 18-C ) :   1.4629 B( 17-C , 20-C ) :   0.1067 B( 17-C , 21-O ) :   1.1453
B( 18-C , 19-C ) :   1.2460 B( 18-C , 23-H ) :   0.9786 B( 19-C , 20-C ) :   1.4718
B( 19-C , 24-H ) :   0.9890 B( 20-C , 21-O ) :   1.1895 B( 20-C , 25-H ) :   0.9905

Dispersion correction           -0.067961657
FINAL SINGLE POINT ENERGY     -1354.697152471209

DIPOLE MOMENT
-------------
                                X             Y             Z
Electronic contribution:     -1.26938       2.94232       0.26062
Nuclear contribution   :      0.27226      -2.66738       0.32554
                        -----------------------------------------
Total Dipole Moment    :     -0.99712       0.27494       0.58616
                        -----------------------------------------
Magnitude (a.u.)       :      1.18888
Magnitude (Debye)      :      3.02189

Rotational constants in cm-1:     0.020158     0.007166     0.005890
Rotational constants in MHz :   604.334574   214.831799   176.565461

                             ****ORCA TERMINATED NORMALLY****
TOTAL RUN TIME: 0 days 0 hours 8 minutes 27 seconds 854 msec
